 Gaussian 09, Revision D.01,
 Gaussian 09:  ES64L-G09RevD.01 24-Apr-2013

 ----------------------------------------------------------------------
 #P SP PBE1PBE/6-311G* SCF=VeryTight Integral(Grid=UltraFine) Force NoS
 ymm
 ----------------------------------------------------------------------

 ----------------------------
 DFT single-point calculation
 ----------------------------
 Symbolic Z-matrix:
 Charge =  0 Multiplicity = 1

                          Input orientation:
 ---------------------------------------------------------------------
 Center     Atomic      Atomic             Coordinates (Angstroms)
 Number     Number       Type             X           Y           Z
 ---------------------------------------------------------------------
      1          6           0       -0.610677   -0.358946    0.000000
      2          8           0       -1.722641    0.103619    0.000000
      3          6           0        0.622629    0.441868    0.000000
      4          6           0        1.819262   -0.142900    0.000000
      5          1           0       -0.448906   -1.460689    0.000000
      6          1           0        0.501288    1.521894    0.000000
      7          1           0        1.913409   -1.226676    0.000000
      8          1           0        2.743326    0.425430    0.000000
 ---------------------------------------------------------------------

 SCF Done:  E(RPBE1PBE) =  -191.728588537     A.U. after   13 cycles

 Alpha  occ. eigenvalues --  -19.19780 -10.31082 -10.25595 -10.24648  -1.08235
 Alpha  occ. eigenvalues --   -0.83432  -0.67240  -0.59528  -0.49938  -0.49689
 Alpha  occ. eigenvalues --   -0.43996  -0.42092  -0.41047  -0.31177  -0.27450
 Alpha virt. eigenvalues --   -0.06393   0.05716   0.06388   0.07129   0.11460
 Alpha virt. eigenvalues --    0.13562   0.22035   0.25900   0.31076   0.35084
 Alpha virt. eigenvalues --    0.37246   0.38617   0.40426   0.46140   0.46150

 Mulliken charges:
               1
     1  C    0.106121
     2  O   -0.297442
     3  C   -0.259171
     4  C   -0.418663
     5  H    0.161580
     6  H    0.228555
     7  H    0.235347
     8  H    0.243672
 Sum of Mulliken charges =  -0.00000

 Dipole moment (field-independent basis, Debye):
    X=              3.1135    Y=             -0.5904    Z=              0.0000  Tot=              3.1690
 Quadrupole moment (field-independent basis, Debye-Ang):
   XX=            -26.0040   YY=            -21.4544   ZZ=            -24.9453
   XY=              0.6775   XZ=              0.0000   YZ=              0.0000

  Exact polarizability:  55.229  -4.505  33.923   0.000  -0.000  17.168
 Approx polarizability:  87.516 -13.612  45.256   0.000  -0.000  23.264

                      1                      2                      3
                      A                      A                      A
 Frequencies --    171.0955               318.1636               576.8874
 Red. masses --      3.4490                 2.6805                 4.8146
 Frc consts  --      0.0595                 0.1599                 0.9440
 IR Inten    --      3.7737                 9.6319                 6.3757

                      4                      5                      6
                      A                      A                      A
 Frequencies --    610.0584               928.6908               992.9865
 Red. masses --      1.1792                 1.5533                 1.3269
 Frc consts  --      0.2586                 0.7893                 0.7709
 IR Inten    --     11.8298                22.3918                49.2126

                      7                      8                      9
                      A                      A                      A
 Frequencies --   1027.0033              1041.9780              1180.2994
 Red. masses --      1.5709                 1.2239                 1.9533
 Frc consts  --      0.9762                 0.7829                 1.6032
 IR Inten    --     10.0730                10.4069                35.3555

                     10                     11                     12
                      A                      A                      A
 Frequencies --   1303.2724              1399.2106              1464.1603
 Red. masses --      1.5209                 1.1840                 1.2150
 Frc consts  --      1.5220                 1.3658                 1.5346
 IR Inten    --      4.0720                 8.1508                13.2533

                     13                     14                     15
                      A                      A                      A
 Frequencies --   1707.0745              1829.7433              2904.3983
 Red. masses --      4.3982                10.0586                 1.0837
 Frc consts  --      7.5514                19.8412                 5.3862
 IR Inten    --      2.4522               245.8228               111.4951

                     16                     17                     18
                      A                      A                      A
 Frequencies --   3155.0279              3200.5860              3251.1330
 Red. masses --      1.0612                 1.0948                 1.1151
 Frc consts  --      6.2239                 6.6075                 6.9442
 IR Inten    --      7.9361                 2.6589                 7.9717

 - Thermochemistry -
 -------------------
 Temperature   298.150 Kelvin.  Pressure   1.00000 Atm.
 Atom     1 has atomic number  6 and mass  12.00000

 Molecular mass:    56.02621 amu.
 Principal axes and moments of inertia in atomic units:
                           1         2         3
     Eigenvalues --    37.45438 385.77270 423.22709
           X            1.00000  -0.00205   0.00000
           Y            0.00205   1.00000   0.00000
           Z            0.00000   0.00000   1.00000
 This molecule is an asymmetric top.
 Rotational symmetry number  1.
 Rotational temperatures (Kelvin)      2.31251     0.22452     0.20465
 Rotational constants (GHZ):          48.18504     4.67825     4.26424
 Zero-point vibrational energy     161865.3 (Joules/Mol)
                                   38.68674 (Kcal/Mol)
 Warning -- explicit consideration of   4 degrees of freedom as
           vibrations may cause significant error
 Vibrational temperatures:    246.17   457.77   830.01   877.74  1336.18
          (Kelvin)           1428.68  1477.63  1499.17  1698.19  1875.12
                             2013.15  2106.60  2456.10  2632.59  4178.78
                             4539.38  4604.92  4677.65

 Zero-point correction=                           0.061651 (Hartree/Particle)
 Thermal correction to Energy=                    0.066013
 Thermal correction to Enthalpy=                  0.066957
 Thermal correction to Gibbs Free Energy=         0.035370
 Sum of electronic and zero-point Energies=           -191.666937
 Sum of electronic and thermal Energies=              -191.662575
 Sum of electronic and thermal Enthalpies=            -191.661631
 Sum of electronic and thermal Free Energies=         -191.693219

                     E (Thermal)             CV                S
                      KCal/Mol        Cal/Mol-Kelvin    Cal/Mol-Kelvin
 Total                   41.424             13.714             66.482
 Electronic               0.000              0.000              0.000
 Translational            0.889              2.981             37.991
 Rotational               0.889              2.981             23.329
 Vibrational             39.646              7.752              5.162
 Vibration     1          0.626              1.878              2.423
 Vibration     2          0.705              1.639              1.320
 Vibration     3          0.933              1.081              0.491
 Vibration     4          0.969              1.011              0.433

 Optimization completed.
    -- Stationary point found.
 Normal termination of Gaussian 09 at Wed Jun 30 16:25:23 2021.
